VARIABLES=Y/(B/2),X/C,CP
ZONE T="FIN SET  1 CP, MACH=  2.36"
   0.00003   0.00000   0.34127
   0.00003   0.00003   0.33098
   0.00003   0.00013   0.30135
   0.00003   0.00029   0.25595
   0.00003   0.00050   0.20026
   0.00003   0.00077   0.14100
   0.00003   0.00108   0.08532
   0.00003   0.00142   0.03992
   0.00003   0.00234   0.16288
   0.00003   0.00247   0.11436
   0.00003   0.00261   0.10329
   0.00003   0.00275   0.09244
   0.00003   0.00290   0.08167
   0.00003   0.00305   0.07097
   0.00003   0.00321   0.06031
   0.00003   0.00337   0.04969
   0.00003   0.00354   0.03911
   0.00003   0.00372   0.02854
   0.00003   0.00389   0.01560
   0.00003   0.00390   0.04422
   0.00003   0.00390   0.04422
   0.00003   0.00390   0.04422
   0.00003   0.00390   0.04422
   0.00003   0.00390   0.04313
   0.00003   0.00390   0.04505
   0.00003   0.03317   0.05235
   0.00003   0.06243   0.05235
   0.00003   0.09169   0.05235
   0.00003   0.12095   0.05235
   0.00003   0.15021   0.05235
   0.00003   0.17948   0.05235
   0.00003   0.20874   0.05235
   0.00003   0.23800  -0.06318
   0.00003   0.23800  -0.06318
   0.00003   0.26711  -0.00479
   0.00003   0.29622  -0.00479
   0.00003   0.32533  -0.00479
   0.00003   0.35444  -0.00479
   0.00003   0.38356  -0.00479
   0.00003   0.41267  -0.00479
   0.00003   0.44178  -0.00479
   0.00003   0.47089  -0.00479
   0.00003   0.50000  -0.00479
   0.00003   0.52911  -0.00479
   0.00003   0.55822  -0.00479
   0.00003   0.58733  -0.00479
   0.00003   0.61644  -0.00479
   0.00003   0.64556  -0.00479
   0.00003   0.67467  -0.00479
   0.00003   0.70378  -0.00479
   0.00003   0.73289  -0.00479
   0.00003   0.76200  -0.09504
   0.00003   0.76200  -0.09504
   0.00003   0.79175  -0.08210
   0.00003   0.82150  -0.08210
   0.00003   0.85125  -0.08210
   0.00003   0.88100  -0.08210
   0.00003   0.91075  -0.08210
   0.00003   0.94050  -0.08210
   0.00003   0.97025  -0.08210
   0.00003   1.00000   0.00588
ZONE T="FIN SET  1 CP, MACH=  2.36"
   0.12500   0.00000   0.34127
   0.12500   0.00003   0.33098
   0.12500   0.00013   0.30135
   0.12500   0.00029   0.25595
   0.12500   0.00050   0.20026
   0.12500   0.00077   0.14100
   0.12500   0.00108   0.08532
   0.12500   0.00142   0.03992
   0.12500   0.00235   0.73374
   0.12500   0.00248   0.68522
   0.12500   0.00261   0.63716
   0.12500   0.00275   0.58954
   0.12500   0.00290   0.54231
   0.12500   0.00306   0.49545
   0.12500   0.00321   0.44893
   0.12500   0.00338   0.40271
   0.12500   0.00355   0.35678
   0.12500   0.00372   0.31109
   0.12500   0.00390   0.23568
   0.12500   0.00391   0.23568
   0.12500   0.00391   0.23568
   0.12500   0.00391   0.23568
   0.12500   0.00391   0.23568
   0.12500   0.00391   0.23568
   0.12500   0.00391   0.23568
   0.12500   0.03317   0.05697
   0.12500   0.06243   0.05743
   0.12500   0.09169   0.05485
   0.12500   0.12095   0.05291
   0.12500   0.15022   0.05152
   0.12500   0.17948   0.05050
   0.12500   0.20874   0.04974
   0.12500   0.23800  -0.05213
   0.12500   0.23800  -0.05213
   0.12500   0.26711  -0.05259
   0.12500   0.29622  -0.02767
   0.12500   0.32533  -0.01659
   0.12500   0.35444  -0.01209
   0.12500   0.38356  -0.00967
   0.12500   0.41267  -0.00819
   0.12500   0.44178  -0.00723
   0.12500   0.47089  -0.00656
   0.12500   0.50000  -0.00608
   0.12500   0.52911  -0.00572
   0.12500   0.55822  -0.00545
   0.12500   0.58733  -0.00524
   0.12500   0.61644  -0.00508
   0.12500   0.64556  -0.00495
   0.12500   0.67467  -0.00484
   0.12500   0.70378  -0.00475
   0.12500   0.73289  -0.00468
   0.12500   0.76200  -0.09488
   0.12500   0.76200  -0.09488
   0.12500   0.79175  -0.09483
   0.12500   0.82150  -0.09479
   0.12500   0.85125  -0.09475
   0.12500   0.88100  -0.09373
   0.12500   0.91075  -0.08749
   0.12500   0.94050  -0.08558
   0.12500   0.97025  -0.08453
   0.12500   1.00000   0.00411
ZONE T="FIN SET  1 CP, MACH=  2.36"
   0.25000   0.00000   0.34127
   0.25000   0.00003   0.33098
   0.25000   0.00013   0.30135
   0.25000   0.00029   0.25595
   0.25000   0.00051   0.20026
   0.25000   0.00077   0.14100
   0.25000   0.00108   0.08532
   0.25000   0.00142   0.03992
   0.25000   0.00235   0.73374
   0.25000   0.00248   0.68522
   0.25000   0.00262   0.63716
   0.25000   0.00276   0.58954
   0.25000   0.00291   0.54231
   0.25000   0.00306   0.49545
   0.25000   0.00322   0.44893
   0.25000   0.00338   0.40271
   0.25000   0.00355   0.35678
   0.25000   0.00373   0.31109
   0.25000   0.00391   0.20814
   0.25000   0.00392   0.20814
   0.25000   0.00392   0.20814
   0.25000   0.00392   0.20814
   0.25000   0.00392   0.20814
   0.25000   0.00392   0.20814
   0.25000   0.00392   0.20814
   0.25000   0.03318   0.03722
   0.25000   0.06244   0.05980
   0.25000   0.09170   0.05735
   0.25000   0.12096   0.05447
   0.25000   0.15022   0.05214
   0.25000   0.17948   0.05032
   0.25000   0.20874   0.04887
   0.25000   0.23800  -0.03934
   0.25000   0.23800  -0.03934
   0.25000   0.26711  -0.04029
   0.25000   0.29622  -0.04107
   0.25000   0.32533  -0.04174
   0.25000   0.35444  -0.02718
   0.25000   0.38356  -0.01884
   0.25000   0.41267  -0.01466
   0.25000   0.44178  -0.01205
   0.25000   0.47089  -0.01028
   0.25000   0.50000  -0.00901
   0.25000   0.52911  -0.00806
   0.25000   0.55822  -0.00733
   0.25000   0.58733  -0.00675
   0.25000   0.61644  -0.00630
   0.25000   0.64556  -0.00593
   0.25000   0.67467  -0.00562
   0.25000   0.70378  -0.00537
   0.25000   0.73289  -0.00516
   0.25000   0.76200  -0.09524
   0.25000   0.76200  -0.09524
   0.25000   0.79175  -0.09508
   0.25000   0.82150  -0.09495
   0.25000   0.85125  -0.09484
   0.25000   0.88100  -0.09474
   0.25000   0.91075  -0.09465
   0.25000   0.94050  -0.09458
   0.25000   0.97025  -0.09452
   0.25000   1.00000  -0.00648
ZONE T="FIN SET  1 CP, MACH=  2.36"
   0.37500   0.00000   0.34127
   0.37500   0.00003   0.33098
   0.37500   0.00013   0.30135
   0.37500   0.00029   0.25595
   0.37500   0.00051   0.20026
   0.37500   0.00077   0.14100
   0.37500   0.00108   0.08532
   0.37500   0.00143   0.03992
   0.37500   0.00236   0.73374
   0.37500   0.00249   0.68522
   0.37500   0.00262   0.63716
   0.37500   0.00277   0.58954
   0.37500   0.00291   0.54231
   0.37500   0.00307   0.49545
   0.37500   0.00323   0.44893
   0.37500   0.00339   0.40271
   0.37500   0.00356   0.35678
   0.37500   0.00374   0.31109
   0.37500   0.00392   0.18059
   0.37500   0.00393   0.18059
   0.37500   0.00393   0.18059
   0.37500   0.00393   0.18059
   0.37500   0.00393   0.18059
   0.37500   0.00393   0.18059
   0.37500   0.00393   0.18059
   0.37500   0.03319   0.18059
   0.37500   0.06245   0.04858
   0.37500   0.09171   0.05496
   0.37500   0.12097   0.05323
   0.37500   0.15022   0.05095
   0.37500   0.17948   0.04891
   0.37500   0.20874   0.04717
   0.37500   0.23800  -0.02708
   0.37500   0.23800  -0.02708
   0.37500   0.26711  -0.02831
   0.37500   0.29622  -0.02936
   0.37500   0.32533  -0.03026
   0.37500   0.35444  -0.03104
   0.37500   0.38356  -0.03172
   0.37500   0.41267  -0.03232
   0.37500   0.44178  -0.02159
   0.37500   0.47089  -0.01663
   0.37500   0.50000  -0.01372
   0.37500   0.52911  -0.01173
   0.37500   0.55822  -0.01028
   0.37500   0.58733  -0.00916
   0.37500   0.61644  -0.00828
   0.37500   0.64556  -0.00758
   0.37500   0.67467  -0.00700
   0.37500   0.70378  -0.00652
   0.37500   0.73289  -0.00612
   0.37500   0.76200  -0.09604
   0.37500   0.76200  -0.09604
   0.37500   0.79175  -0.09574
   0.37500   0.82150  -0.09549
   0.37500   0.85125  -0.09527
   0.37500   0.88100  -0.09508
   0.37500   0.91075  -0.09491
   0.37500   0.94050  -0.09477
   0.37500   0.97025  -0.09464
   0.37500   1.00000  -0.00655
ZONE T="FIN SET  1 CP, MACH=  2.36"
   0.50000   0.00000   0.34127
   0.50000   0.00003   0.33098
   0.50000   0.00013   0.30135
   0.50000   0.00029   0.25595
   0.50000   0.00051   0.20026
   0.50000   0.00078   0.14100
   0.50000   0.00109   0.08532
   0.50000   0.00143   0.03992
   0.50000   0.00236   0.73374
   0.50000   0.00250   0.68522
   0.50000   0.00263   0.63716
   0.50000   0.00278   0.58954
   0.50000   0.00293   0.54231
   0.50000   0.00308   0.49545
   0.50000   0.00324   0.44893
   0.50000   0.00341   0.40271
   0.50000   0.00358   0.35678
   0.50000   0.00375   0.31109
   0.50000   0.00393   0.15304
   0.50000   0.00394   0.15304
   0.50000   0.00394   0.15304
   0.50000   0.00395   0.15304
   0.50000   0.00395   0.15304
   0.50000   0.00395   0.15304
   0.50000   0.00395   0.15304
   0.50000   0.03321   0.15304
   0.50000   0.06246   0.06129
   0.50000   0.09172   0.03619
   0.50000   0.12097   0.04583
   0.50000   0.15023   0.04609
   0.50000   0.17949   0.04494
   0.50000   0.20874   0.04356
   0.50000   0.23800  -0.01633
   0.50000   0.23800  -0.01633
   0.50000   0.26711  -0.01753
   0.50000   0.29622  -0.01861
   0.50000   0.32533  -0.01956
   0.50000   0.35444  -0.02042
   0.50000   0.38356  -0.02118
   0.50000   0.41267  -0.02186
   0.50000   0.44178  -0.02248
   0.50000   0.47089  -0.02304
   0.50000   0.50000  -0.02354
   0.50000   0.52911  -0.02400
   0.50000   0.55822  -0.01841
   0.50000   0.58733  -0.01462
   0.50000   0.61644  -0.01241
   0.50000   0.64556  -0.01086
   0.50000   0.67467  -0.00968
   0.50000   0.70378  -0.00875
   0.50000   0.73289  -0.00800
   0.50000   0.76200  -0.09764
   0.50000   0.76200  -0.09764
   0.50000   0.79175  -0.09710
   0.50000   0.82150  -0.09665
   0.50000   0.85125  -0.09626
   0.50000   0.88100  -0.09593
   0.50000   0.91075  -0.09563
   0.50000   0.94050  -0.09538
   0.50000   0.97025  -0.09515
   0.50000   1.00000  -0.00698
ZONE T="FIN SET  1 CP, MACH=  2.36"
   0.62500   0.00000   0.34127
   0.62500   0.00003   0.33098
   0.62500   0.00013   0.30135
   0.62500   0.00029   0.25595
   0.62500   0.00051   0.20026
   0.62500   0.00078   0.14100
   0.62500   0.00109   0.08532
   0.62500   0.00144   0.03992
   0.62500   0.00238   0.73374
   0.62500   0.00251   0.68522
   0.62500   0.00265   0.63716
   0.62500   0.00279   0.58954
   0.62500   0.00294   0.54231
   0.62500   0.00310   0.49545
   0.62500   0.00326   0.44893
   0.62500   0.00343   0.40271
   0.62500   0.00360   0.35678
   0.62500   0.00377   0.31109
   0.62500   0.00395   0.12550
   0.62500   0.00397   0.12550
   0.62500   0.00397   0.12550
   0.62500   0.00397   0.12550
   0.62500   0.00398   0.12550
   0.62500   0.00398   0.12550
   0.62500   0.00398   0.12550
   0.62500   0.03323   0.12550
   0.62500   0.06248   0.12550
   0.62500   0.09174   0.12550
   0.62500   0.12099  -0.05010
   0.62500   0.15024   0.02615
   0.62500   0.17949   0.03348
   0.62500   0.20875   0.03512
   0.62500   0.23800  -0.00907
   0.62500   0.23800  -0.00907
   0.62500   0.26711  -0.00947
   0.62500   0.29622  -0.01006
   0.62500   0.32533  -0.01071
   0.62500   0.35444  -0.01136
   0.62500   0.38356  -0.01198
   0.62500   0.41267  -0.01257
   0.62500   0.44178  -0.01313
   0.62500   0.47089  -0.01364
   0.62500   0.50000  -0.01413
   0.62500   0.52911  -0.01457
   0.62500   0.55822  -0.01499
   0.62500   0.58733  -0.01538
   0.62500   0.61644  -0.01575
   0.62500   0.64556  -0.01609
   0.62500   0.67467  -0.01640
   0.62500   0.70378  -0.01670
   0.62500   0.73289  -0.01698
   0.62500   0.76200  -0.10396
   0.62500   0.76200  -0.10396
   0.62500   0.79175  -0.10162
   0.62500   0.82150  -0.10021
   0.62500   0.85125  -0.09918
   0.62500   0.88100  -0.09838
   0.62500   0.91075  -0.09772
   0.62500   0.94050  -0.09718
   0.62500   0.97025  -0.09672
   0.62500   1.00000  -0.00834
ZONE T="FIN SET  1 CP, MACH=  2.36"
   0.75000   0.00000   0.34127
   0.75000   0.00003   0.33098
   0.75000   0.00013   0.30135
   0.75000   0.00030   0.25595
   0.75000   0.00052   0.20026
   0.75000   0.00079   0.14100
   0.75000   0.00111   0.08532
   0.75000   0.00146   0.03992
   0.75000   0.00241   0.73374
   0.75000   0.00254   0.68522
   0.75000   0.00268   0.63716
   0.75000   0.00283   0.58954
   0.75000   0.00298   0.54231
   0.75000   0.00314   0.49545
   0.75000   0.00330   0.44893
   0.75000   0.00347   0.40271
   0.75000   0.00364   0.35678
   0.75000   0.00382   0.31109
   0.75000   0.00400   0.09795
   0.75000   0.00402   0.09795
   0.75000   0.00402   0.09795
   0.75000   0.00403   0.09795
   0.75000   0.00403   0.09795
   0.75000   0.00404   0.09795
   0.75000   0.00404   0.09795
   0.75000   0.03328   0.09795
   0.75000   0.06253   0.09795
   0.75000   0.09177   0.09795
   0.75000   0.12102   0.09795
   0.75000   0.15027   0.09795
   0.75000   0.17951   0.09795
   0.75000   0.20876  -0.04423
   0.75000   0.23800  -0.03216
   0.75000   0.23800  -0.03215
   0.75000   0.26711  -0.01680
   0.75000   0.29622  -0.01149
   0.75000   0.32533  -0.00909
   0.75000   0.35444  -0.00790
   0.75000   0.38356  -0.00732
   0.75000   0.41267  -0.00706
   0.75000   0.44178  -0.00700
   0.75000   0.47089  -0.00705
   0.75000   0.50000  -0.00717
   0.75000   0.52911  -0.00733
   0.75000   0.55822  -0.00751
   0.75000   0.58733  -0.00771
   0.75000   0.61644  -0.00792
   0.75000   0.64556  -0.00813
   0.75000   0.67467  -0.00834
   0.75000   0.70378  -0.00855
   0.75000   0.73289  -0.00875
   0.75000   0.76200  -0.09921
   0.75000   0.76200  -0.09921
   0.75000   0.79175  -0.09940
   0.75000   0.82150  -0.09959
   0.75000   0.85125  -0.09978
   0.75000   0.88100  -0.09995
   0.75000   0.91075  -0.10012
   0.75000   0.94050  -0.10029
   0.75000   0.97025  -0.10045
   0.75000   1.00000  -0.01262
ZONE T="FIN SET  1 CP, MACH=  2.36"
   0.87500   0.00000   0.34127
   0.87500   0.00003   0.33098
   0.87500   0.00014   0.30135
   0.87500   0.00031   0.25595
   0.87500   0.00054   0.20026
   0.87500   0.00082   0.14100
   0.87500   0.00115   0.08532
   0.87500   0.00151   0.03992
   0.87500   0.00249   0.73374
   0.87500   0.00263   0.68522
   0.87500   0.00278   0.63716
   0.87500   0.00293   0.58954
   0.87500   0.00308   0.54231
   0.87500   0.00325   0.49545
   0.87500   0.00342   0.44893
   0.87500   0.00359   0.40271
   0.87500   0.00377   0.35678
   0.87500   0.00396   0.31109
   0.87500   0.00414   0.07041
   0.87500   0.00417   0.07041
   0.87500   0.00418   0.07041
   0.87500   0.00419   0.07041
   0.87500   0.00421   0.07041
   0.87500   0.00422   0.07041
   0.87500   0.00422   0.07041
   0.87500   0.03344   0.07041
   0.87500   0.06266   0.07041
   0.87500   0.09189   0.07041
   0.87500   0.12111   0.07041
   0.87500   0.15033   0.07041
   0.87500   0.17955   0.07041
   0.87500   0.20878   0.07041
   0.87500   0.23800   0.05458
   0.87500   0.23800   0.05458
   0.87500   0.26711   0.05458
   0.87500   0.29622   0.05458
   0.87500   0.32533   0.05458
   0.87500   0.35444   0.05458
   0.87500   0.38356   0.05458
   0.87500   0.41267   0.05458
   0.87500   0.44178   0.05458
   0.87500   0.47089  -0.05579
   0.87500   0.50000  -0.09592
   0.87500   0.52911  -0.04422
   0.87500   0.55822  -0.02901
   0.87500   0.58733  -0.02161
   0.87500   0.61644  -0.01716
   0.87500   0.64555  -0.01421
   0.87500   0.67467  -0.01214
   0.87500   0.70378  -0.01061
   0.87500   0.73289  -0.00946
   0.87500   0.76200  -0.09883
   0.87500   0.76200  -0.09883
   0.87500   0.79175  -0.09812
   0.87500   0.82150  -0.09756
   0.87500   0.85125  -0.09711
   0.87500   0.88100  -0.09674
   0.87500   0.91075  -0.09645
   0.87500   0.94050  -0.09621
   0.87500   0.97025  -0.09602
   0.87500   1.00000  -0.00788
ZONE T="FIN SET  1 CP, MACH=  2.36"
   0.99997   0.00000   0.34127
   0.99997   0.00033   0.33098
   0.99997   0.00130   0.30135
   0.99997   0.00289   0.25595
   0.99997   0.00505   0.20026
   0.99997   0.00772   0.14100
   0.99997   0.01080   0.08532
   0.99997   0.01421   0.03992
   0.99997   0.02344   0.02286
   0.99997   0.02478   0.01997
   0.99997   0.02611   0.01727
   0.99997   0.02757   0.01475
   0.99997   0.02904   0.01242
   0.99997   0.03057   0.01029
   0.99997   0.03217   0.00835
   0.99997   0.03377   0.00661
   0.99997   0.03550  -0.00062
   0.99997   0.03723  -0.00174
   0.99997   0.03896  -0.00278
   0.99997   0.04076  -0.00380
   0.99997   0.04262  -0.00479
   0.99997   0.04449  -0.00572
   0.99997   0.04635  -0.00660
   0.99997   0.04809  -0.00675
   0.99997   0.04809  -0.00796
   0.99997   0.07972  -0.01676
   0.99997   0.11136   0.01656
   0.99997   0.14299   0.03009
   0.99997   0.17469   0.03499
   0.99997   0.20633   0.03745
   0.99997   0.23796   0.03725
   0.99997   0.23796   0.03735
   0.99997   0.26707   0.03815
   0.99997   0.29617   0.03888
   0.99997   0.32527   0.03943
   0.99997   0.35438   0.03979
   0.99997   0.38355   0.04006
   0.99997   0.41265   0.04027
   0.99997   0.44176   0.04044
   0.99997   0.47086   0.04058
   0.99997   0.49997   0.04069
   0.99997   0.52907   0.04078
   0.99997   0.55818   0.04086
   0.99997   0.58728   0.04092
   0.99997   0.61638   0.04098
   0.99997   0.64555   0.04103
   0.99997   0.67466   0.04107
   0.99997   0.70376   0.04111
   0.99997   0.73287   0.04114
   0.99997   0.76197  -0.04909
   0.99997   0.76197  -0.04909
   0.99997   0.79174  -0.04906
   0.99997   0.82151  -0.02616
   0.99997   0.85122  -0.02031
   0.99997   0.88099  -0.01765
   0.99997   0.91076  -0.01611
   0.99997   0.94046  -0.01511
   0.99997   0.97023  -0.01439
   0.99997   1.00000   0.07410
ZONE T="FIN SET  2 CP, MACH=  2.36"
   0.00002   0.00000   1.21387
   0.00002   0.00004   1.17726
   0.00002   0.00016   1.07187
   0.00002   0.00036   0.91040
   0.00002   0.00063   0.71233
   0.00002   0.00096   0.50154
   0.00002   0.00134   0.30347
   0.00002   0.00177   0.14200
   0.00002   0.00222   0.21204
   0.00002   0.00228   0.19379
   0.00002   0.00234   0.17872
   0.00002   0.00241   0.16413
   0.00002   0.00247   0.14973
   0.00002   0.00253   0.13544
   0.00002   0.00260   0.12126
   0.00002   0.00266   0.10715
   0.00002   0.00273   0.09312
   0.00002   0.00279   0.07914
   0.00002   0.00286   0.06522
   0.00002   0.00292   0.05054
   0.00002   0.00292   0.05055
   0.00002   0.00292   0.05060
   0.00002   0.03143   0.05469
   0.00002   0.05994   0.05469
   0.00002   0.08845   0.05469
   0.00002   0.11695   0.05469
   0.00002   0.14546   0.05469
   0.00002   0.17397   0.05469
   0.00002   0.20248   0.05469
   0.00002   0.23098   0.05469
   0.00002   0.25949   0.05469
   0.00002   0.28800  -0.01148
   0.00002   0.28800  -0.01148
   0.00002   0.31857  -0.00247
   0.00002   0.34914  -0.00247
   0.00002   0.37971  -0.00247
   0.00002   0.41029  -0.00247
   0.00002   0.44086  -0.00247
   0.00002   0.47143  -0.00247
   0.00002   0.50200  -0.00247
   0.00002   0.53257  -0.00247
   0.00002   0.56314  -0.00247
   0.00002   0.59371  -0.00247
   0.00002   0.62429  -0.00247
   0.00002   0.65486  -0.00247
   0.00002   0.68543  -0.00247
   0.00002   0.71600  -0.07647
   0.00002   0.71600  -0.07647
   0.00002   0.74440  -0.07247
   0.00002   0.77280  -0.07247
   0.00002   0.80120  -0.07247
   0.00002   0.82960  -0.07247
   0.00002   0.85800  -0.07247
   0.00002   0.88640  -0.07247
   0.00002   0.91480  -0.07247
   0.00002   0.94320  -0.07247
   0.00002   0.97160  -0.07247
   0.00002   1.00000   0.00125
ZONE T="FIN SET  2 CP, MACH=  2.36"
   0.12500   0.00000   1.21387
   0.12500   0.00004   1.17726
   0.12500   0.00017   1.07187
   0.12500   0.00038   0.91040
   0.12500   0.00067   0.71233
   0.12500   0.00102   0.50154
   0.12500   0.00143   0.30347
   0.12500   0.00189   0.14200
   0.12500   0.00237   0.26262
   0.12500   0.00243   0.24437
   0.12500   0.00250   0.22628
   0.12500   0.00257   0.20833
   0.12500   0.00263   0.19052
   0.12500   0.00270   0.17282
   0.12500   0.00277   0.15524
   0.12500   0.00284   0.13775
   0.12500   0.00291   0.12034
   0.12500   0.00298   0.10301
   0.12500   0.00305   0.08575
   0.12500   0.00312   0.06667
   0.12500   0.00312   0.06667
   0.12500   0.00312   0.06667
   0.12500   0.03161   0.06667
   0.12500   0.06010   0.06667
   0.12500   0.08859   0.06667
   0.12500   0.11707   0.06667
   0.12500   0.14556   0.06667
   0.12500   0.17405   0.05728
   0.12500   0.20254   0.05718
   0.12500   0.23102   0.05668
   0.12500   0.25951   0.05625
   0.12500   0.28800  -0.00922
   0.12500   0.28800  -0.00922
   0.12500   0.31857  -0.00952
   0.12500   0.34914  -0.00976
   0.12500   0.37971  -0.00996
   0.12500   0.41029  -0.01012
   0.12500   0.44086  -0.01025
   0.12500   0.47143  -0.00814
   0.12500   0.50200  -0.00582
   0.12500   0.53257  -0.00479
   0.12500   0.56314  -0.00417
   0.12500   0.59371  -0.00377
   0.12500   0.62429  -0.00348
   0.12500   0.65486  -0.00327
   0.12500   0.68543  -0.00311
   0.12500   0.71600  -0.07699
   0.12500   0.71600  -0.07699
   0.12500   0.74440  -0.07690
   0.12500   0.77280  -0.07683
   0.12500   0.80120  -0.07677
   0.12500   0.82960  -0.07672
   0.12500   0.85800  -0.07668
   0.12500   0.88640  -0.07665
   0.12500   0.91480  -0.07662
   0.12500   0.94320  -0.07493
   0.12500   0.97160  -0.07426
   0.12500   1.00000  -0.00014
ZONE T="FIN SET  2 CP, MACH=  2.36"
   0.25000   0.00000   1.21387
   0.25000   0.00005   1.17726
   0.25000   0.00019   1.07187
   0.25000   0.00041   0.91040
   0.25000   0.00072   0.71233
   0.25000   0.00110   0.50154
   0.25000   0.00153   0.30347
   0.25000   0.00202   0.14200
   0.25000   0.00254   0.26262
   0.25000   0.00261   0.24437
   0.25000   0.00268   0.22628
   0.25000   0.00275   0.20833
   0.25000   0.00282   0.19052
   0.25000   0.00289   0.17282
   0.25000   0.00297   0.15524
   0.25000   0.00304   0.13775
   0.25000   0.00312   0.12034
   0.25000   0.00319   0.10301
   0.25000   0.00326   0.08575
   0.25000   0.00334   0.06559
   0.25000   0.00335   0.06559
   0.25000   0.00335   0.06559
   0.25000   0.03182   0.06559
   0.25000   0.06028   0.06559
   0.25000   0.08875   0.06559
   0.25000   0.11721   0.06559
   0.25000   0.14568   0.06559
   0.25000   0.17414   0.06559
   0.25000   0.20261   0.06559
   0.25000   0.23107   0.06559
   0.25000   0.25954   0.06559
   0.25000   0.28800   0.00152
   0.25000   0.28800   0.00152
   0.25000   0.31857   0.00152
   0.25000   0.34914  -0.00568
   0.25000   0.37971  -0.00575
   0.25000   0.41029  -0.00635
   0.25000   0.44086  -0.00689
   0.25000   0.47143  -0.00735
   0.25000   0.50200  -0.00774
   0.25000   0.53257  -0.00806
   0.25000   0.56314  -0.00834
   0.25000   0.59371  -0.00858
   0.25000   0.62429  -0.00879
   0.25000   0.65486  -0.00898
   0.25000   0.68543  -0.00669
   0.25000   0.71600  -0.07953
   0.25000   0.71600  -0.07953
   0.25000   0.74440  -0.07888
   0.25000   0.77280  -0.07843
   0.25000   0.80120  -0.07809
   0.25000   0.82960  -0.07783
   0.25000   0.85800  -0.07762
   0.25000   0.88640  -0.07745
   0.25000   0.91480  -0.07731
   0.25000   0.94320  -0.07719
   0.25000   0.97160  -0.07709
   0.25000   1.00000  -0.00328
ZONE T="FIN SET  2 CP, MACH=  2.36"
   0.37500   0.00000   1.21387
   0.37500   0.00005   1.17726
   0.37500   0.00020   1.07187
   0.37500   0.00044   0.91040
   0.37500   0.00077   0.71233
   0.37500   0.00118   0.50154
   0.37500   0.00165   0.30347
   0.37500   0.00218   0.14200
   0.37500   0.00273   0.26262
   0.37500   0.00281   0.24437
   0.37500   0.00288   0.22628
   0.37500   0.00296   0.20833
   0.37500   0.00304   0.19052
   0.37500   0.00312   0.17282
   0.37500   0.00320   0.15524
   0.37500   0.00328   0.13775
   0.37500   0.00335   0.12034
   0.37500   0.00343   0.10301
   0.37500   0.00351   0.08575
   0.37500   0.00360   0.06452
   0.37500   0.00361   0.06452
   0.37500   0.00361   0.06452
   0.37500   0.03205   0.06452
   0.37500   0.06049   0.06452
   0.37500   0.08893   0.06452
   0.37500   0.11737   0.06452
   0.37500   0.14581   0.06452
   0.37500   0.17425   0.06452
   0.37500   0.20268   0.06452
   0.37500   0.23112   0.06452
   0.37500   0.25956   0.06452
   0.37500   0.28800   0.00150
   0.37500   0.28800   0.00150
   0.37500   0.31857   0.00150
   0.37500   0.34914   0.00150
   0.37500   0.37971   0.00150
   0.37500   0.41029   0.00150
   0.37500   0.44086   0.00150
   0.37500   0.47143   0.00150
   0.37500   0.50200   0.00150
   0.37500   0.53257   0.00150
   0.37500   0.56314  -0.00432
   0.37500   0.59371  -0.00465
   0.37500   0.62429  -0.00519
   0.37500   0.65486  -0.00569
   0.37500   0.68543  -0.00612
   0.37500   0.71600  -0.08049
   0.37500   0.71600  -0.08049
   0.37500   0.74440  -0.08080
   0.37500   0.77280  -0.08107
   0.37500   0.80120  -0.08132
   0.37500   0.82960  -0.08154
   0.37500   0.85800  -0.08174
   0.37500   0.88640  -0.08192
   0.37500   0.91480  -0.08032
   0.37500   0.94320  -0.07940
   0.37500   0.97160  -0.07884
   0.37500   1.00000  -0.00472
ZONE T="FIN SET  2 CP, MACH=  2.36"
   0.50000   0.00000   1.21387
   0.50000   0.00005   1.17726
   0.50000   0.00022   1.07187
   0.50000   0.00048   0.91040
   0.50000   0.00084   0.71233
   0.50000   0.00128   0.50154
   0.50000   0.00179   0.30347
   0.50000   0.00236   0.14200
   0.50000   0.00296   0.26262
   0.50000   0.00304   0.24437
   0.50000   0.00312   0.22628
   0.50000   0.00321   0.20833
   0.50000   0.00329   0.19052
   0.50000   0.00338   0.17282
   0.50000   0.00346   0.15524
   0.50000   0.00355   0.13775
   0.50000   0.00363   0.12034
   0.50000   0.00372   0.10301
   0.50000   0.00381   0.08575
   0.50000   0.00390   0.06854
   0.50000   0.00392   0.06344
   0.50000   0.00392   0.06344
   0.50000   0.03233   0.06344
   0.50000   0.06074   0.06344
   0.50000   0.08914   0.06344
   0.50000   0.11755   0.06344
   0.50000   0.14596   0.06344
   0.50000   0.17437   0.06344
   0.50000   0.20278   0.06344
   0.50000   0.23118   0.06344
   0.50000   0.25959   0.06344
   0.50000   0.28800   0.00147
   0.50000   0.28800   0.00147
   0.50000   0.31857   0.00147
   0.50000   0.34914   0.00147
   0.50000   0.37971   0.00147
   0.50000   0.41029   0.00147
   0.50000   0.44086   0.00147
   0.50000   0.47143   0.00147
   0.50000   0.50200   0.00147
   0.50000   0.53257   0.00147
   0.50000   0.56314   0.00147
   0.50000   0.59371   0.00147
   0.50000   0.62429   0.00147
   0.50000   0.65486   0.00147
   0.50000   0.68543   0.00147
   0.50000   0.71600  -0.07252
   0.50000   0.71600  -0.07252
   0.50000   0.74440  -0.07252
   0.50000   0.77280  -0.07252
   0.50000   0.80120  -0.07766
   0.50000   0.82960  -0.07775
   0.50000   0.85800  -0.07818
   0.50000   0.88640  -0.07860
   0.50000   0.91480  -0.07898
   0.50000   0.94320  -0.07932
   0.50000   0.97160  -0.07964
   0.50000   1.00000  -0.00619
ZONE T="FIN SET  2 CP, MACH=  2.36"
   0.62500   0.00000   1.21387
   0.62500   0.00006   1.17726
   0.62500   0.00024   1.07187
   0.62500   0.00052   0.91040
   0.62500   0.00091   0.71233
   0.62500   0.00140   0.50154
   0.62500   0.00195   0.30347
   0.62500   0.00257   0.14200
   0.62500   0.00323   0.26262
   0.62500   0.00332   0.24437
   0.62500   0.00341   0.22628
   0.62500   0.00350   0.20833
   0.62500   0.00359   0.19052
   0.62500   0.00368   0.17282
   0.62500   0.00378   0.15524
   0.62500   0.00387   0.13775
   0.62500   0.00396   0.12034
   0.62500   0.00406   0.10301
   0.62500   0.00415   0.08575
   0.62500   0.00425   0.06854
   0.62500   0.00428   0.06237
   0.62500   0.00428   0.06237
   0.62500   0.03266   0.06237
   0.62500   0.06103   0.06237
   0.62500   0.08940   0.06237
   0.62500   0.11777   0.06237
   0.62500   0.14614   0.06237
   0.62500   0.17451   0.06237
   0.62500   0.20289   0.06237
   0.62500   0.23126   0.06237
   0.62500   0.25963   0.06237
   0.62500   0.28800   0.00145
   0.62500   0.28800   0.00145
   0.62500   0.31857   0.00145
   0.62500   0.34914   0.00145
   0.62500   0.37971   0.00145
   0.62500   0.41029   0.00145
   0.62500   0.44086   0.00145
   0.62500   0.47143   0.00145
   0.62500   0.50200   0.00145
   0.62500   0.53257   0.00145
   0.62500   0.56314   0.00145
   0.62500   0.59371   0.00145
   0.62500   0.62429   0.00145
   0.62500   0.65486   0.00145
   0.62500   0.68543   0.00145
   0.62500   0.71600  -0.07255
   0.62500   0.71600  -0.07255
   0.62500   0.74440  -0.07255
   0.62500   0.77280  -0.07255
   0.62500   0.80120  -0.07255
   0.62500   0.82960  -0.07255
   0.62500   0.85800  -0.07255
   0.62500   0.88640  -0.07255
   0.62500   0.91480  -0.07255
   0.62500   0.94320  -0.07255
   0.62500   0.97160  -0.07255
   0.62500   1.00000   0.00118
ZONE T="FIN SET  2 CP, MACH=  2.36"
   0.75000   0.00000   1.21387
   0.75000   0.00007   1.17726
   0.75000   0.00026   1.07187
   0.75000   0.00058   0.91040
   0.75000   0.00101   0.71233
   0.75000   0.00154   0.50154
   0.75000   0.00215   0.30347
   0.75000   0.00283   0.14200
   0.75000   0.00355   0.26262
   0.75000   0.00365   0.24437
   0.75000   0.00375   0.22628
   0.75000   0.00385   0.20833
   0.75000   0.00395   0.19052
   0.75000   0.00405   0.17282
   0.75000   0.00416   0.15524
   0.75000   0.00426   0.13775
   0.75000   0.00436   0.12034
   0.75000   0.00447   0.10301
   0.75000   0.00457   0.08575
   0.75000   0.00467   0.06854
   0.75000   0.00472   0.06129
   0.75000   0.00472   0.06129
   0.75000   0.03305   0.06129
   0.75000   0.06137   0.06129
   0.75000   0.08970   0.06129
   0.75000   0.11803   0.06129
   0.75000   0.14636   0.06129
   0.75000   0.17469   0.06129
   0.75000   0.20302   0.06129
   0.75000   0.23134   0.06129
   0.75000   0.25967   0.06129
   0.75000   0.28800   0.00142
   0.75000   0.28800   0.00142
   0.75000   0.31857   0.00142
   0.75000   0.34914   0.00142
   0.75000   0.37971   0.00142
   0.75000   0.41029   0.00142
   0.75000   0.44086   0.00142
   0.75000   0.47143   0.00142
   0.75000   0.50200   0.00142
   0.75000   0.53257   0.00142
   0.75000   0.56314   0.00142
   0.75000   0.59371   0.00142
   0.75000   0.62429   0.00142
   0.75000   0.65486   0.00142
   0.75000   0.68543   0.00142
   0.75000   0.71600  -0.07257
   0.75000   0.71600  -0.07257
   0.75000   0.74440  -0.07257
   0.75000   0.77280  -0.07257
   0.75000   0.80120  -0.07257
   0.75000   0.82960  -0.07257
   0.75000   0.85800  -0.07257