VARIABLES=X/D,CP,MACH
ZONE T="BODY CP, MLOCAL AT MACH=  2.36 ALPHA= 0.0"
ZONE T="BODY CP, MLOCAL AT MACH=  2.36 ALPHA= 0.0"
ZONE T="BODY CP, MLOCAL AT MACH=  2.36 ALPHA= 0.0"
ZONE T="BODY CP, MLOCAL AT MACH=  2.36 ALPHA= 0.0"
ZONE T="BODY CP, MLOCAL AT MACH=  2.36 ALPHA= 0.0"
ZONE T="BODY CP, MLOCAL AT MACH=  2.36 ALPHA= 0.0"
ZONE T="BODY CP, MLOCAL AT MACH=  2.36 ALPHA= 0.0"
ZONE T="BODY CP, MLOCAL AT MACH=  2.36 ALPHA= 0.0"
